192
Lattice="12.86239819 0.0 0.0 -5.3e-07 12.86239819 0.0 -5.3e-07 -5.3e-07 12.86239819" Properties=species:S:1:pos:R:3 energy=-30038.169921875 pbc="T T T"
O        9.43565297  6.52279702  4.396
H       8.80736087  6.44574882  3.6625
H       9.77533182  7.42446207  4.3486
O        8.60812565  9.89624881  8.287
H       9.24594294  10.5520052  8.6276
H       7.75196984  10.27879101  8.529
O        8.69416986  7.06827289  7.182
H       8.6835334  7.06160526  6.22328
H       8.579603  7.99041709  7.409115
O        4.93143415  8.54684693  5.612
H       4.89940306  9.26409371  6.2574
H       5.22357172  8.97849678  4.7994
O        1.51720397  5.37861006  3.473
H       0.56858504  5.17725814  3.5342
H       1.74142165  5.93387571  4.2424
O        3.61188845  12.05444513  10.8
H       3.39568252  12.43899821  9.941
H       2.74151895  11.88727805  11.17
O        3.87949866  10.40933903  7.70
H       2.94167493  10.50718389  7.503
H       3.9073863  9.83078959  8.48207
O        4.92820088  -0.01082009  0.30
H       5.87635415  0.16878001  0.1388
H       4.490656  -0.01603301  12.3047
O        1.49746037  2.81249219  6.005
H       1.55978686  2.63889561  6.9450
H       1.13545024  3.69531324  6.0105
O        0.71715683  12.13022331  11.8
H       0.45843309  0.16336018  12.112
H       1.08230498  11.68867785  12.63
O        10.81415959  9.1813304  4.106
H       10.24137818  9.80094399  4.604
H       10.64344703  9.32500201  3.155
O        2.42724589  6.60757121  5.640
H       3.17238561  7.2212051  5.61536
H       1.67556555  7.1674407  5.85169
O        11.65036542  10.24418282  11.
H       11.97464521  9.42898533  11.31
H       12.40693007  10.86215597  11.7
O        3.05382875  2.97847921  9.689
H       3.24186658  3.46450731  8.8788
H       3.93064363  2.86569038  10.123
O        0.31365074  1.20098355  4.171
H       1.12931179  0.64839025  4.1781
H       0.600124  1.91219243  4.759599
O        5.41147197  2.82620318  11.01
H       6.09702104  3.12154756  10.400
H       5.32262311  3.55097486  11.645
O        0.19718095  12.12366151  8.23
H       0.93386548  -0.11015617  8.347
H       12.61775427  12.3723748  7.404
O        7.24549434  0.20447672  4.849
H       7.06753204  -0.32504498  4.066
H       7.53791766  1.0829347  4.54111
O        10.18782545  9.40855909  1.37
H       9.49783129  8.74401835  1.2136
H       10.52708096  9.63483527  0.492
O        2.02538343  9.16762471  10.51
H       2.98823724  9.02003719  10.547
H       1.83703868  9.78744997  11.230
O        6.30943277  11.79879962  8.87
H       5.59419686  11.78800441  8.227
H       5.94530594  11.54685836  9.726
O        3.94346031  5.00440769  7.327
H       4.64595363  5.54233749  7.7236
H       3.2836557  5.63631936  6.99858
O        3.42316269  1.19417833  2.256
H       4.11219904  0.98301546  1.6040
H       3.44537226  2.15645004  2.3746
O        4.647647  1.11585481  5.92466
H       5.47163942  0.71004469  5.6328
H       4.80393949  2.04329079  5.7065
O        8.52626193  7.54654325  0.089
H       8.62299553  7.6846585  11.9991
H       8.88673745  6.65435048  0.2407
O        9.44115641  11.19527302  5.62
H       8.6802525  11.77255244  5.5741
H       9.35860476  10.78045101  6.500
O        10.08304836  3.24507869  6.48
H       10.38769568  2.33934956  6.598
H       10.91941294  3.72221132  6.436
O        4.53784802  8.58267222  10.14
H       5.01249352  8.03650843  9.5222
H       5.20934215  8.86636413  10.797
O        8.09694046  1.14663176  7.719
H       8.08503398  0.97110897  8.6663
H       7.51034753  0.52498242  7.2910
O        9.15418361  4.78117429  0.137
H       10.10781386  4.75456196  0.056
H       8.96341523  3.92334628  0.5416
O        10.41558332  11.60834875  9.5
H       11.28883155  11.94072495  9.33
H       10.64143615  11.04726215  10.3
O        3.6776546  4.14436243  2.6721
H       3.93750177  4.66171782  1.9069
H       2.84991031  4.55243215  3.0192
O        6.91280063  4.0487507  8.6294
H       7.23771543  3.23925245  8.2228
H       7.7449847  4.49917575  8.82762
O        12.26479307  7.78753055  10.6
H       12.08100983  7.34042873  11.47
H       0.36557784  7.8429354  10.5880
O        6.7670123  6.29387496  2.8164
H       6.39706452  5.80946615  3.5595
H       6.48644255  5.77882679  2.0482
O        5.54561839  5.14566096  0.242
H       6.37007648  5.4497844  -0.1377
H       4.96569309  5.92546179  0.1941
O        12.02174198  5.94355965  0.35
H       12.61881263  6.47062015  0.907
H       12.57907142  5.27899775  -0.06
O        5.40326972  4.20468864  5.025
H       4.84980857  4.4833216  5.78417
H       4.80462742  3.99340934  4.2958
O        9.67870406  4.7747342  9.1202
H       9.54842063  5.72400403  9.0369
H       9.92498313  4.46865281  8.2403
O        7.90135657  2.9671019  4.4651
H       7.19278829  3.44925642  4.9124
H       8.66316008  3.20897293  4.9979
O        5.92482678  7.03848021  8.019
H       6.7272711  6.59222507  7.73159
H       5.67325593  7.42234536  7.1825
O        12.18054806  5.10017289  7.10
H       12.04719541  5.25913243  8.042
H       11.89791452  5.93509282  6.701
O        4.6295121  10.2238095  0.9995
H       4.75122815  11.19532594  1.000
H       5.05979138  9.8448657  1.78261
O        3.92155766  7.37630694  0.608
H       4.33437409  8.23717242  0.5763
H       2.9849193  7.58004017  0.50948
O        7.63830258  0.31458738  0.235
H       7.90521956  1.09493115  0.7492
H       8.05317751  0.44724047  12.231
O        9.39151959  7.64486438  10.12
H       9.17598571  8.34152617  9.4933
H       10.35261123  7.58152186  10.10
O        1.12504133  10.12506503  3.34
H       0.26147122  10.14469751  3.764
H       1.70887196  10.73510052  3.817
O        2.70031721  12.43164265  4.36
H       3.09083941  0.11132354  3.6468
H       3.23051573  12.68961654  5.124
O        11.69248792  5.17750685  3.30
H       11.54077282  5.78316604  2.571
H       11.15738393  5.53244188  4.024
O        1.19979819  7.60634027  1.886
H       1.23089265  8.22706514  2.6313
H       1.52964493  6.77500288  2.2565
O        8.79148555  2.47505706  1.898
H       8.4282054  3.04180585  2.60591
H       9.65362106  2.22939183  2.2575
O        11.67222044  2.58541696  2.23
H       12.19689964  2.13352608  2.913
H       11.56770794  3.48046729  2.588
O        11.40249881  0.4604064  6.214
H       10.8586634  -0.25868246  5.867
H       12.04169196  0.63241968  5.508
O        6.36563139  9.8206823  11.803
H       6.96534792  9.27769357  12.328
H       5.86153718  10.33853512  12.45
O        12.59738095  7.74768351  6.03
H       12.05836105  8.18478388  5.366
H       0.07941309  8.4434457  6.63540
O        11.10065613  2.96553553  10.9
H       10.70551951  3.64997334  10.40
H       11.98776881  3.27186034  11.11
O        6.3334045  9.35251923  3.1044
H       6.65228669  8.44836705  2.9784
H       6.96095575  10.00922814  2.741
O        9.03284327  0.92408628  10.62
H       9.58705057  0.2320151  10.2217
H       9.65266854  1.5732068  10.9795
O        1.83139765  10.31122957  0.44
H       2.75712438  10.08098457  0.598
H       1.4314561  10.19137094  1.3088
O        0.59827188  1.81370726  0.112
H       -0.05088727  2.16602286  0.740
H       1.23404654  1.47680659  0.7394
O        2.53547322  0.66772109  8.498
H       3.25261946  0.64297148  7.8565
H       2.75735722  1.47570061  9.0031
O        1.66365906  4.44532139  12.31
H       2.18262315  4.0560798  11.6005
H       1.29449445  3.68383538  -0.090
O        0.92573202  9.51016112  7.770
H       0.36958318  10.3017573  7.7956
H       1.23313106  9.44957033  8.6910
O        8.27178061  11.28978407  2.15
H       9.08861855  10.78145644  2.078
H       8.24151168  11.82134257  1.334
